! TOUCHSTONE file generated by CST MICROWAVE STUDIO
! Date and time: Sat Sep 27 23:18:30 2025
! Project name: ResonadorAnillo_PadsGndDesplazados_AnchoPistaPin.cst
! Parameters = {Eeff=2.76858; Er=3.55; H=1.56; L1=45.0747; L2=45.0747; L_Ang=9; L_AngTrans=1; L_Base=6.5; L_PadGND=4; L_Pin=4; L_conn=4; L_sma=8.5; Landa=180.299; R_Diel=2.08; R_Pin=0.45; R_sma=2.58; T=0.035; W=3.3; W_Base=1.5; W_PadGND=1.8; W_PistaPin=2.4; W_conn=0.9; Wa=3.3; X=122.745; Y=122.745; c=3e+11; d_Borde=0.27; f=1e+09; r=28.6954; s=0.3}
! Header version: 2024
! Port assignment regex: !\s*Touchstone port\s*([0-9]+)\s*=\s*(CST MWS port|CST DES external port|CST DES block port)\s*(.+)\s* \(\"(.*)\"\)(\s*mode\s*([0-9]+))?.*
! Touchstone port assignment:
! Touchstone port 1 = CST MWS port 1 ("")
! Touchstone port 2 = CST MWS port 2 ("")
# GHz S MA R 50
0                     1.00000904               0   5.93898663e-07               0   5.93898653e-07               0       1.00000857               0
0.0008               0.999976791    -0.125096836   3.89420322e-07      75.2686078   3.89420323e-07      75.2686079      0.999976613      -0.1251545
0.0016               0.999950265     -0.25021494   8.21557563e-07      87.0106787   8.21557564e-07      87.0106787      0.999950105    -0.250330847
0.0024               0.999923982    -0.375342771   1.24931515e-06      88.9814931   1.24931515e-06      88.9814931       0.99992385    -0.375515686
0.0032               0.999897824    -0.500473568   1.66985397e-06      89.7473561   1.66985397e-06      89.7473561      0.999897711    -0.500702743
0.004                0.999871727    -0.625605021   2.08452792e-06      90.2396646   2.08452792e-06      90.2396646      0.999871622    -0.625890143
0.0048               0.999845651    -0.750736326   2.49517813e-06      90.6390543   2.49517813e-06      90.6390543      0.999845547    -0.751077306
0.0056               0.999819574    -0.875867234   2.90366636e-06      90.9947408   2.90366636e-06      90.9947408      0.999819465    -0.876264089
0.0064                0.99979348     -1.00099757   3.31165875e-06      91.3239342   3.31165875e-06      91.3239342      0.999793363     -1.00145036
0.0072               0.999767362     -1.12612667   3.72057548e-06      91.6336479   3.72057547e-06      91.6336479      0.999767232     -1.12663548
0.008                0.999741211     -1.25125509   4.13161227e-06      91.9267966   4.13161227e-06      91.9267966      0.999741068     -1.25182001
0.0088               0.999711371     -1.37659558   4.54646047e-06      92.1955134   4.54646047e-06      92.1955134      0.999711211     -1.37721678
0.0096               0.999680784     -1.50197881   4.96539707e-06      92.4483963   4.96539707e-06      92.4483963      0.999680607     -1.50265639
0.0104               0.999658162     -1.62695163   5.38763907e-06      92.7026373   5.38763907e-06      92.7026373       0.99965797     -1.62768553
0.0112               0.999645433     -1.75168022    5.8143116e-06      92.9570867    5.8143116e-06      92.9570867      0.999645232     -1.75247043
0.012                0.999634579     -1.87659703   6.24727838e-06      93.1928982   6.24727837e-06      93.1928982      0.999634369     -1.87744371
0.0128               0.999622711     -2.00174061   6.68700833e-06      93.4042055   6.68700833e-06      93.4042055      0.999622493     -2.00264396
0.0136               0.999605653     -2.12718723   7.13398873e-06       93.584305   7.13398873e-06       93.584305      0.999605424     -2.12814742
0.0144               0.999589404      -2.2524173   7.58666033e-06      93.7431404   7.58666033e-06      93.7431404      0.999589165     -2.25343435
0.0152               0.999573933     -2.37758924   8.04560736e-06      93.8798191   8.04560736e-06      93.8798191      0.999573684     -2.37866323
0.016                0.999559233     -2.50273808   8.51091189e-06      93.9937743   8.51091189e-06      93.9937743      0.999558974     -2.50386911
0.0168               0.999548067     -2.62769279   8.98188433e-06       94.088289   8.98188433e-06       94.088289      0.999547801     -2.62888089
0.0176               0.999532364     -2.75291539   9.45983323e-06      94.1528413   9.45983323e-06      94.1528413      0.999532088     -2.75416075
0.0184               0.999517195     -2.87810075   9.94346002e-06       94.194501   9.94346002e-06       94.194501      0.999516909     -2.87940347
0.0192               0.999502556     -3.00326798   1.04324586e-05      94.2136831   1.04324586e-05      94.2136831       0.99950226     -3.00462815
0.02                 0.999488447     -3.12841702    1.0926387e-05        94.21107    1.0926387e-05        94.21107       0.99948814     -3.12983474
0.0208               0.999476903     -3.25342446   1.14243282e-05      94.1897402   1.14243282e-05      94.1897402      0.999476586     -3.25489977
0.0216               0.999462101     -3.37862505   1.19268439e-05      94.1446804   1.19268439e-05      94.1446804       0.99946177     -3.38015813
0.0224               0.999447697     -3.50380195   1.24326127e-05      94.0812646   1.24326127e-05      94.0812646      0.999447351     -3.50539287
0.0232               0.999433689     -3.62896802   1.29410533e-05      94.0010251   1.29410533e-05      94.0010251      0.999433328     -3.63061686
0.024                0.999420078     -3.75412207   1.34515189e-05      93.9056696   1.34515189e-05      93.9056696      0.999419698      -3.7558289
0.0248               0.999408358     -3.87917257   1.39630536e-05      93.7983812   1.39630536e-05      93.7983812      0.999407959      -3.8809374
0.0256               0.999394146      -4.0043699    1.4475869e-05      93.6771732    1.4475869e-05      93.6771732      0.999393724     -4.00619285
0.0264               0.999380243     -4.12954772   1.49887917e-05      93.5466456   1.49887917e-05      93.5466456      0.999379796     -4.13142881
0.0272               0.999366646      -4.2547183   1.55012919e-05      93.4088309   1.55012919e-05      93.4088309      0.999366171     -4.25665754
0.028                0.999353355     -4.37988074   1.60128405e-05      93.2657779   1.60128405e-05      93.2657779      0.999352849     -4.38187813
0.0288                0.99934153     -4.50496364   1.65227248e-05      93.1204141   1.65227248e-05      93.1204141      0.999340991     -4.50701913
0.0296               0.999327714     -4.63016344   1.70312104e-05      92.9720121   1.70312104e-05      92.9720121      0.999327139     -4.63227704
0.0304               0.999314143     -4.75534742   1.75375144e-05        92.82424   1.75375144e-05        92.82424      0.999313528     -4.75751908
0.0312               0.999300813     -4.88052667   1.80414235e-05      92.6788563   1.80414235e-05      92.6788563      0.999300155     -4.88275631
0.032                0.999287724     -5.00570046   1.85427602e-05      92.5375031   1.85427602e-05      92.5375031       0.99928702     -5.00798799
0.0328               0.999275808     -5.13081105   1.90412314e-05      92.4023258   1.90412314e-05      92.4023258      0.999275056     -5.13315634
0.0336               0.999262252     -5.25601784   1.95373602e-05      92.2727242   1.95373602e-05      92.2727242      0.999261448      -5.2584208
0.0344                0.99924889     -5.38121179   2.00308313e-05      92.1511741   2.00308313e-05      92.1511741      0.999248031     -5.38367228
0.0352               0.999235721     -5.50640283   2.05218085e-05      92.0386715   2.05218085e-05      92.0386715      0.999234805     -5.50892069
0.036                0.999222744     -5.63159029   2.10104815e-05       91.936052   2.10104815e-05       91.936052      0.999221768     -5.63416536
0.0368               0.999210729     -5.75672627   2.14969382e-05      91.8444649   2.14969382e-05      91.8444649      0.999209692     -5.75935835
0.0376               0.999197329     -5.88194338   2.19819281e-05      91.7629564   2.19819281e-05      91.7629564      0.999196227      -5.8846323
0.0384               0.999184086     -6.00715002   2.24654877e-05      91.6928533   2.24654876e-05      91.6928533      0.999182918     -6.00989558
0.0392               0.999170997     -6.13235506   2.29480344e-05      91.6343446   2.29480344e-05      91.6343446      0.999169762     -6.13515705
0.04                 0.999158063      -6.2575579   2.34299811e-05      91.5874914   2.34299811e-05      91.5874914      0.999156758     -6.26041611
0.0408               0.999145934     -6.38271799   2.39116292e-05      91.5525995   2.39116292e-05      91.5525995      0.999144558     -6.38563219
0.0416               0.999132613     -6.50794783    2.4393809e-05      91.5283626    2.4393809e-05      91.5283626      0.999131166     -6.51091781
0.0424                0.99911942     -6.63316911   2.48767231e-05      91.5152626   2.48767231e-05      91.5152626      0.999117899     -6.63619463
0.0432               0.999106353     -6.75838978   2.53608724e-05      91.5129223   2.53608724e-05      91.5129223      0.999104759     -6.76147061
0.044                0.999093412     -6.88360931   2.58467263e-05       91.520896   2.58467263e-05       91.520896      0.999091743     -6.88674523
0.0448               0.999081154     -7.00879283    2.6334636e-05      91.5389659    2.6334636e-05      91.5389659      0.999079411     -7.01198358
0.0456               0.999067857     -7.13403728   2.68253809e-05      91.5656741   2.68253809e-05      91.5656741      0.999066039     -7.13728265
0.0464               0.999054665     -7.25927472   2.73191838e-05      91.6010209   2.73191838e-05      91.6010209      0.999052772     -7.26257448
0.0472               0.999041577     -7.38451237   2.78165068e-05      91.6443596   2.78165068e-05      91.6443596      0.999039609     -7.38786628
0.048                0.999028593     -7.50974975   2.83177676e-05      91.6950272   2.83177676e-05      91.6950272       0.99902655     -7.51315758
0.0488               0.999016197     -7.63495647   2.88232673e-05      91.7525808   2.88232673e-05      91.7525808       0.99901408     -7.63841798
0.0496               0.999002884     -7.76021714   2.93336653e-05      91.8156099   2.93336653e-05      91.8156099      0.999000693     -7.76373212
0.0504               0.998989658     -7.88547205   2.98491277e-05      91.8839192   2.98491277e-05      91.8839192      0.998987394     -7.88904028
0.0512               0.998976518     -8.01072739   3.03700205e-05      91.9568183   3.03700205e-05      91.9568183      0.998974182     -8.01434865
0.052                0.998963466     -8.13598362   3.08966675e-05      92.0336319   3.08966675e-05      92.0336319      0.998961058     -8.13965769
0.0528               0.998950925     -8.26121514   3.14292854e-05       92.113891   3.14292854e-05       92.113891      0.998948447      -8.2649418
0.0536               0.998937567     -8.38649779   3.19684011e-05      92.1963545   3.19684011e-05      92.1963545      0.998935019     -8.39027684
0.0544               0.998924281     -8.51177815   3.25140986e-05      92.2808066   3.25140986e-05      92.2808066      0.998921665     -8.51560939
0.0552                0.99891107     -8.63705184   3.30666003e-05      92.3666506   3.30666003e-05      92.3666506      0.998908386     -8.64093506
0.056                0.998897932     -8.76232006   3.36261297e-05      92.4533092   3.36261297e-05      92.4533092      0.998895182     -8.76625507
0.0568               0.998885245     -8.88756338   3.41928247e-05      92.5403893   3.41928247e-05      92.5403893      0.998882431     -8.89154996
0.0576               0.998871822     -9.01285282   3.47670989e-05      92.6268655   3.47670989e-05      92.6268655      0.998868946     -9.01689081
0.0584               0.998858461     -9.13814539   3.53489774e-05      92.7125806   3.53489774e-05      92.7125806      0.998855523      -9.1422346
0.0592               0.998845161     -9.26344494   3.59386211e-05      92.7970648   3.59386211e-05      92.7970648      0.998842162     -9.26758518
0.06                 0.998831922      -9.3887487    3.6536149e-05      92.8798833    3.6536149e-05      92.8798833      0.998828864      -9.3929398
0.0608               0.998819083     -9.51403329   3.71415966e-05      92.9607655   3.71415966e-05      92.9607655      0.998815968     -9.51827507
0.0616               0.998805578     -9.63935615   3.77552466e-05      93.0389118   3.77552466e-05      93.0389118      0.998802408     -9.64364844
0.0624               0.998792127     -9.76467302   3.83770376e-05      93.1142609   3.83770376e-05      93.1142609      0.998788902     -9.76901566
0.0632               0.998778728     -9.88999179   3.90070709e-05      93.1864793   3.90070709e-05      93.1864793       0.99877545     -9.89438461
0.064                0.998765381     -10.0153129   3.96454061e-05      93.2552678   3.96454061e-05      93.2552678      0.998762053     -10.0197557
0.0648               0.998752391      -10.140617   4.02920253e-05      93.3204689   4.02920253e-05      93.3204689      0.998749013     -10.1451097
0.0656               0.998738795     -10.2659582   4.09471374e-05      93.3814738   4.09471374e-05      93.3814738      0.998735369     -10.2705006
0.0664               0.998725244     -10.3912977   4.16106394e-05       93.438306   4.16106393e-05       93.438306      0.998721772     -10.3958896
0.0672               0.998711737     -10.5166403   4.22825634e-05      93.4907588   4.22825634e-05      93.4907588       0.99870822     -10.5212816
0.068                0.998698275     -10.6419857   4.29629126e-05      93.5386521   4.29629126e-05      93.5386521      0.998694715     -10.6466764
0.0688               0.998685132     -10.7673165   4.36516238e-05      93.5819263   4.36516238e-05      93.5819263      0.998681532     -10.7720563
0.0696               0.998671435     -10.8926817    4.4348843e-05      93.6201303    4.4348843e-05      93.6201303      0.998667795     -10.8974705
0.0704               0.998657776     -11.0180461    4.5054433e-05      93.6533579    4.5054433e-05      93.6533579      0.998654098     -11.0228838
0.0712               0.998644155      -11.143414   4.57683834e-05      93.6815007   4.57683834e-05      93.6815007       0.99864044     -11.1483004
0.072                0.998630572     -11.2687853   4.64906582e-05      93.7044718   4.64906582e-05      93.7044718      0.998626822     -11.2737203
0.0728               0.998617277     -11.3941441   4.72211625e-05       93.722286   4.72211625e-05       93.722286      0.998613494     -11.3991275
0.0736               0.998603472     -11.5195349   4.79599954e-05      93.7346153   4.79599954e-05      93.7346153      0.998599657     -11.5245667
0.0744               0.998589699     -11.6449257   4.87069972e-05      93.7416037   4.87069972e-05      93.7416037      0.998585853     -11.6500057
0.0752               0.998575958     -11.7703205   4.94621273e-05      93.7432158   4.94621273e-05      93.7432158      0.998572084     -11.7754486
0.076                 0.99856225     -11.8957191   5.02253226e-05      93.7394327   5.02253226e-05      93.7394327      0.998558348     -11.9008952
0.0768               0.998548804      -12.021107   5.09964673e-05      93.7303217   5.09964673e-05      93.7303217      0.998544876      -12.026331
0.0776               0.998534886     -12.1465252    5.1775626e-05       93.715647    5.1775626e-05       93.715647      0.998530932     -12.1517969
0.0784               0.998520995      -12.271944   5.25626257e-05      93.6955844   5.25626257e-05      93.6955844      0.998517018     -12.2772633
0.0792               0.998507131     -12.3973672   5.33574054e-05      93.6701495   5.33574054e-05      93.6701495      0.998503132      -12.402734
0.08                 0.998493295     -12.5227947   5.41598842e-05      93.6393698   5.41598842e-05      93.6393698      0.998489276     -12.5282089
0.0808               0.998479698     -12.6482131   5.49699335e-05      93.6033465   5.49699335e-05      93.6033465      0.998475659     -12.6536746
0.0816               0.998465662     -12.7736601   5.57875933e-05      93.5619108   5.57875933e-05      93.5619108      0.998461604     -12.7791689
0.0824                0.99845165     -12.8991084   5.66126837e-05      93.5152557   5.66126837e-05      93.5152557      0.998447575     -12.9046642
0.0832               0.998437661     -13.0245613   5.74451302e-05      93.4634299   5.74451302e-05      93.4634299      0.998433569     -13.0301641
0.084                0.998423695     -13.1500192   5.82848432e-05      93.4064899   5.82848432e-05      93.4064899      0.998419589     -13.1556689
0.0848               0.998409948     -13.2754703   5.91316898e-05      93.3445559   5.91316898e-05      93.3445559      0.998405827     -13.2811667
0.0856               0.998395791       -13.40095   5.99856957e-05      93.2775059   5.99856957e-05      93.2775059      0.998391658     -13.4066931
0.0864               0.998381655     -13.5264328   6.08466786e-05      93.2055387   6.08466786e-05      93.2055387      0.998377509     -13.5322224
0.0872               0.998367539     -13.6519167   6.17145339e-05      93.1287278   6.17145339e-05      93.1287278      0.998363382     -13.6577527
0.088                0.998353443     -13.7774023   6.25891676e-05      93.0471464   6.25891676e-05      93.0471464      0.998349276     -13.7832846
0.0888               0.998339548     -13.9028804   6.34704523e-05      92.9609214   6.34704523e-05      92.9609214      0.998335371      -13.908809
0.0896                0.99832527     -14.0283859   6.43584099e-05      92.8699623   6.43584099e-05      92.8699623      0.998321084     -14.0343607
0.0904               0.998311009     -14.1538973   6.52528709e-05      92.7744629   6.52528709e-05      92.7744629      0.998306815     -14.1599181
0.0912               0.998296764     -14.2794169   6.61537474e-05      92.6745021   6.61537474e-05      92.6745021      0.998292563     -14.2854835
0.092                0.998282536     -14.4049431   6.70609346e-05      92.5701633   6.70609346e-05      92.5701633      0.998278329     -14.4110556
0.0928               0.998268492     -14.5304645   6.79742917e-05      92.4615777   6.79742917e-05      92.4615777      0.998264279     -14.5366227
0.0936                0.99825409     -14.6560101   6.88938176e-05      92.3486805   6.88938176e-05      92.3486805      0.998249872     -14.6622138
0.0944               0.998239703      -14.781557   6.98193337e-05       92.231661   6.98193337e-05       92.231661      0.998235479     -14.7878062
0.0952                0.99822533     -14.9071097   7.07507619e-05      92.1105988   7.07507619e-05      92.1105988      0.998221102     -14.9134042
0.096                0.998210971     -15.0326683   7.16880057e-05      91.9855775   7.16880057e-05      91.9855775      0.998206739     -15.0390081
0.0968               0.998196782      -15.158223   7.26309323e-05      91.8567237   7.26309323e-05      91.8567237      0.998192547     -15.1646079
0.0976               0.998182256     -15.2838019   7.35795403e-05      91.7239862   7.35795403e-05      91.7239862      0.998178018     -15.2902319
0.0984               0.998167743     -15.4093844   7.45336614e-05      91.5875426   7.45336614e-05      91.5875426      0.998163502     -15.4158593
0.0992               0.998153241     -15.5349734   7.54932132e-05      91.4474727   7.54932132e-05      91.4474727      0.998148998     -15.5414931
0.1                  0.998138752     -15.6605688   7.64580998e-05      91.3038583   7.64580998e-05      91.3038583      0.998134506     -15.6671331
0.1008               0.998124419     -15.7861613   7.74281933e-05      91.1568191   7.74281933e-05      91.1568191      0.998120172     -15.7927702
0.1016               0.998109769     -15.9117773   7.84034894e-05      91.0063135   7.84034894e-05      91.0063135      0.998105521     -15.9184306
0.1024                0.99809513     -16.0373974    7.9383827e-05      90.8525068   7.93838269e-05      90.8525068       0.99809088      -16.044095
0.1032                 0.9980805     -16.1630244   8.03691266e-05      90.6954747   8.03691266e-05      90.6954747      0.998076249     -16.1697661
0.104                 0.99806588     -16.2886581   8.13592959e-05      90.5352945   8.13592959e-05      90.5352945      0.998061628      -16.295444
0.1048               0.998051406       -16.41429   8.23542126e-05      90.3720775   8.23542126e-05      90.3720775      0.998047153     -16.4211198
0.1056               0.998036633     -16.5399447   8.33538709e-05      90.2057882   8.33538709e-05      90.2057882      0.998032379     -16.5468182
0.1064               0.998021868      -16.665604   8.43581173e-05      90.0365787   8.43581173e-05      90.0365787      0.998017613     -16.6725212
0.1072               0.998007111     -16.7912705   8.53668761e-05      89.8645193   8.53668761e-05      89.8645193      0.998002855     -16.7982313
0.108                0.997992362     -16.9169442    8.6380059e-05      89.6896815    8.6380059e-05      89.6896815      0.997988106     -16.9239485
0.1088               0.997977749      -17.042617   8.73975497e-05      89.5121676   8.73975497e-05      89.5121677      0.997973491     -17.0496645
0.1096               0.997962853     -17.1683121   8.84193417e-05      89.3319458   8.84193417e-05      89.3319458      0.997958594     -17.1754027
0.1104               0.997947963     -17.2940122   8.94452893e-05      89.1491551   8.94452893e-05      89.1491551      0.997943703     -17.3011458
0.1112                0.99793308       -17.41972   9.04753207e-05      88.9638598   9.04753207e-05      88.9638598      0.997928819     -17.4268965
0.112                0.997918204     -17.5454354   9.15093523e-05      88.7761251   9.15093523e-05      88.7761251      0.997913941     -17.5526545
0.1128               0.997903453     -17.6711506   9.25472735e-05      88.5860441   9.25472735e-05      88.5860441       0.99789919     -17.6784123
0.1136               0.997888435     -17.7968877   9.35890779e-05      88.3935871   9.35890779e-05      88.3935871       0.99788417     -17.8041918
0.1144               0.997873422     -17.9226304   9.46346273e-05      88.1988811   9.46346273e-05      88.1988811      0.997869155     -17.9299767
0.1152               0.997858414      -18.048381    9.5683854e-05      88.0019837    9.5683854e-05      88.0019837      0.997854145     -18.0557695
0.116                0.997843411     -18.1741397   9.67366789e-05       87.802954   9.67366789e-05       87.802954       0.99783914     -18.1815701
0.1168               0.997828526      -18.299899   9.77929974e-05      87.6018762   9.77929974e-05      87.6018762      0.997824252     -18.3073712
0.1176               0.997813387     -18.4256798   9.88528031e-05       87.398722   9.88528031e-05       87.398722       0.99780911     -18.4331936
0.1184               0.997798252     -18.5514666   9.99159651e-05      87.1936067   9.99159651e-05      87.1936067      0.997793972     -18.5590219
0.1192                0.99778312     -18.6772616   0.000100982419      86.9865822   0.000100982419      86.9865822      0.997778837     -18.6848582
0.12                 0.997767993     -18.8030651   0.000102052092       86.777701   0.000102052092       86.777701      0.997763706     -18.8107029
0.1208               0.997752976     -18.9288706   0.000103124886      86.5670388   0.000103124886      86.5670388      0.997748685     -18.9365493
0.1216               0.997737717      -19.054698   0.000104200798      86.3545677   0.000104200798      86.3545677      0.997733421     -19.0624175
0.1224                0.99772246     -19.1805327   0.000105279703      86.1403926   0.000105279703      86.1403926       0.99771816     -19.1882928
0.1232               0.997707207     -19.3063736   0.000106361524      85.9245626   0.000106361524      85.9245626      0.997702902     -19.3141742
0.124                0.997691957     -19.4322211   0.000107446193      85.7071246   0.000107446193      85.7071246      0.997687646     -19.4400619
0.1248                0.99767681     -19.5580702   0.000108533624      85.4881455   0.000108533624      85.4881455      0.997672494     -19.5659511
0.1256               0.997661433     -19.6839408   0.000109623818      85.2675968   0.000109623818      85.2675968       0.99765711     -19.6918617
0.1264               0.997646057     -19.8098205   0.000110716666      85.0455726   0.000110716666      85.0455726      0.997641728     -19.8177811
0.1272               0.997630684     -19.9357107   0.000111812108       84.822114   0.000111812108       84.822114      0.997626348     -19.9437108
0.128                0.997615312     -20.0616107   0.000112910073      84.5972639   0.000112910073      84.5972639      0.997610968     -20.0696502
0.1288               0.997600037     -20.1875137   0.000114010471      84.3710843   0.000114010471      84.3710843      0.997595685     -20.1955924
0.1296               0.997584542     -20.3134368   0.000115113291      84.1435494   0.000115113291      84.1435494      0.997580183     -20.3215545
0.1304               0.997569049     -20.4393663   0.000116218421       83.914746   0.000116218421       83.914746      0.997564681     -20.4475228
0.1312               0.997553556     -20.5653051   0.000117325813      83.6847094   0.000117325813      83.6847094      0.997549179     -20.5735001
0.132                0.997538065     -20.6912533   0.000118435404      83.4534767   0.000118435404      83.4534767      0.997533678     -20.6994867
0.1328               0.997522665     -20.8172052   0.000119547112      83.2211033   0.000119547112      83.2211033      0.997518268     -20.8254768
0.1336               0.997507055     -20.9431775    0.00012066093      82.9875629    0.00012066093      82.9875629      0.997502648      -20.951487
0.1344               0.997491445     -21.0691576   0.000121776754      82.7529344   0.000121776754      82.7529344      0.997487027     -21.0775049
0.1352               0.997475836     -21.1951475   0.000122894536      82.5172495   0.000122894536      82.5172495      0.997471407     -21.2035324
0.136                0.997460227     -21.3211473   0.000124014214      82.2805412   0.000124014214      82.2805412      0.997455786     -21.3295696
0.1368               0.997444703     -21.4471515   0.000125135711      82.0428596   0.000125135711      82.0428596       0.99744025     -21.4556108
0.1376               0.997428979     -21.5731758    0.00012625902      81.8041789    0.00012625902      81.8041789      0.997424513     -21.5816721
0.1384               0.997413255     -21.6992084   0.000127384044      81.5645708   0.000127384044      81.5645708      0.997408776     -21.7077414
0.1392                0.99739753     -21.8252512   0.000128510736      81.3240635   0.000128510736      81.3240635      0.997393037     -21.8338207
0.14                 0.997381805     -21.9513042    0.00012963904      81.0826862    0.00012963904      81.0826862      0.997377298       -21.95991
0.1408                0.99736616     -22.0773622    0.00013076888      80.8404841    0.00013076888      80.8404841      0.997361639     -22.0860041
0.1416               0.997350323     -22.2034402   0.000131900253      80.5974319   0.000131900253      80.5974319      0.997345787     -22.2121179
0.1424               0.997334485      -22.329527   0.000133033063       80.353595   0.000133033063       80.353595      0.997329934     -22.3382403
0.1432               0.997318647     -22.4556243   0.000134167269      80.1089985   0.000134167269      80.1089985       0.99731408      -22.464373
0.144                0.997302807     -22.5817322   0.000135302816      79.8636682   0.000135302816      79.8636682      0.997298224     -22.5905161
0.1448               0.997287043     -22.7078458   0.000136439635      79.6176451   0.000136439635      79.6176451      0.997282443     -22.7166645
0.1456               0.997271095     -22.8339792    0.00013757772      79.3709042    0.00013757772      79.3709042      0.997266478     -22.8428327
0.1464               0.997255146     -22.9601218   0.000138716983      79.1235057   0.000138716983      79.1235057      0.997250512     -22.9690097
0.1472               0.997239195     -23.0862754   0.000139857383      78.8754714   0.000139857383      78.8754714      0.997234543     -23.0951975
0.148                0.997223243     -23.2124398    0.00014099887      78.6268246    0.00014099887      78.6268246      0.997218572     -23.2213959
0.1488               0.997207361     -23.3386105   0.000142141378      78.3776023   0.000142141378      78.3776023      0.997202672     -23.3476003
0.1496               0.997191304     -23.4648011     0.0001432849      78.1277801     0.0001432849      78.1277801      0.997186595     -23.4738244
0.1504               0.997175244     -23.5910012   0.000144429355      77.8774132   0.000144429355      77.8774132      0.997170516     -23.6000578
0.1512               0.997159183     -23.7172126   0.000145574703       77.626521   0.000145574703      77.6265211      0.997154434     -23.7263021
0.152                0.997143119     -23.8434353   0.000146720897      77.3751242   0.000146720897      77.3751242      0.997138349     -23.8525576
0.1528               0.997127122     -23.9696647   0.000147867875      77.1232564   0.000147867875      77.1232564      0.997122332     -23.9788195
0.1536               0.997110956     -24.0959141   0.000149015632      76.8708938   0.000149015632      76.8708938      0.997106145     -24.1051011
0.1544               0.997094788     -24.2221734   0.000150164088      76.6180873   0.000150164088      76.6180873      0.997089954     -24.2313924
0.1552               0.997078617     -24.3484443   0.000151313208      76.3648539   0.000151313208      76.3648539      0.997073761     -24.3576951
0.156                0.997062443     -24.4747268   0.000152462947      76.1112122   0.000152462947      76.1112122      0.997057565     -24.4840091
0.1568               0.997046333     -24.6010167   0.000153613246      75.8571927   0.000153613246      75.8571927      0.997041432     -24.6103303